# Model for PE

       185     atoms
       180     bonds
       180    angles

        1     atom types
        1     bond types
        1     angle types

    -100.0000   100.0000 xlo xhi
    -100.0000   100.0000 ylo yhi
    -1.0000   3.0000 zlo zhi

Masses

         1          1.

Atoms

       1    1    1       -1.9797        7.4777        1.1699
       2    1    1       -1.1235        7.5697        1.5390
       3    1    1       -0.2818        7.9533        1.8363
       4    1    1        0.4927        7.8601        1.3039
       5    1    1        1.2084        8.3984        0.8966
       6    1    1        2.1553        8.5452        0.8718
       7    1    1        3.0287        8.1953        0.7950
       8    1    1        3.8577        8.0819        1.2239
       9    1    1        4.6387        8.5762        1.2657
      10    1    1        5.2790        8.2008        0.6442
      11    1    1        5.6625        7.3262        0.8077
      12    1    1        6.4764        7.1099        1.3639
      13    1    1        7.3858        7.2583        1.5493
      14    1    1        8.3610        7.1166        1.4738
      15    1    1        9.2992        6.9560        1.2108
      16    1    1       10.0485        7.1996        0.6653
      17    1    1       11.0089        7.3935        0.4071
      18    1    1       11.4716        8.3122        0.3460
      19    1    1       11.8456        9.2112        0.3344
      20    1    1       11.9765       10.0443        0.7077
      21    1    1       12.5642        9.7858        1.4888
      22    1    1       13.4472        9.6673        1.5615
      23    1    1       14.0616       10.4479        1.2292
      24    1    1       14.9933       10.5997        1.3381
      25    1    1       15.6623       10.3216        0.7146
      26    1    1       16.3060       10.9966        0.4150
      27    1    1       17.1295       10.7706        0.9452
      28    1    1       17.1132       11.4004        1.5932
      29    1    1       18.0442       11.6555        1.4349
      30    1    1       18.9353       11.9833        1.7350
      31    1    1       19.7132       12.1264        1.1565
      32    1    1       20.2955       12.7446        1.5290
      33    1    1       21.1722       12.3865        1.6223
      34    1    1       21.9752       12.6339        1.2192
      35    1    1       22.2213       13.5282        0.8726
      36    1    1       22.8764       13.9693        1.5210
      37    1    1       23.6307       13.6289        1.0349
      38    1    1       24.2467       14.4208        0.9848
      39    1    1       24.8993       15.1685        1.1040
      40    1    1       25.8383       15.5320        1.1184
      41    1    1       26.5789       15.1776        0.5003
      42    1    1       27.4156       14.9163        0.8301
      43    1    1       28.2996       15.0604        0.7050
      44    1    1       28.9443       14.5410        1.1784
      45    1    1       29.8651       14.7728        1.3527
      46    1    1       29.5743       15.4876        0.7430
      47    1    1       29.3631       16.3238        1.1442
      48    1    1       29.2583       16.9948        0.4453
      49    1    1       29.7784       17.7554        0.8106
      50    1    1       29.7394       18.5958        0.4525
      51    1    1       30.0088       19.3256        1.0480
      52    1    1       29.7000       20.2079        0.8017
      53    1    1       29.9582       21.0892        1.0314
      54    1    1       29.0948       21.4409        1.3259
      55    1    1       28.4923       21.6965        1.9633
      56    1    1       27.8273       22.3440        1.6820
      57    1    1       27.5950       23.2026        1.9675
      58    1    1       27.1437       24.0739        1.8913
      59    1    1       26.2082       24.3009        1.6595
      60    1    1       25.3524       24.7881        1.5320
      61    1    1       24.6471       24.8493        0.8883
      62    1    1       24.1483       24.8468        0.0933
      63    1    1       23.8637       23.9519        0.3061
      64    1    1       23.8644       22.9853        0.6236
      65    1    1       24.7993       22.8084        0.7498
      66    1    1       25.3479       22.5349        0.0808
      67    1    1       25.8170       21.7001        0.0584
      68    1    1       26.3839       20.9096        0.2022
      69    1    1       26.2578       20.0336        0.5321
      70    1    1       25.7332       19.2425        0.9069
      71    1    1       24.8828       18.8387        1.2040
      72    1    1       23.9956       18.7421        1.5308
      73    1    1       23.0582       18.8104        1.5073
      74    1    1       22.2151       19.1960        1.3442
      75    1    1       21.3833       19.8410        1.5107
      76    1    1       21.9885       20.5033        1.3157
      77    1    1       22.4129       21.2138        1.8141
      78    1    1       23.0633       22.0163        1.8600
      79    1    1       22.4686       22.1551        1.1425
      80    1    1       21.8627       22.5966        0.5048
      81    1    1       21.0166       23.0818        0.5676
      82    1    1       21.5082       23.9166        0.8336
      83    1    1       22.1301       24.3649        0.2310
      84    1    1       21.8282       25.2764        0.3829
      85    1    1       22.3389       25.6380        1.0642
      86    1    1       22.4969       26.5648        1.3240
      87    1    1       23.2071       27.2947        1.3430
      88    1    1       23.7001       27.8443        0.7926
      89    1    1       24.7287       27.7583        0.8272
      90    1    1       25.2602       27.0530        1.0527
      91    1    1       25.7431       26.3699        0.5474
      92    1    1       25.6394       25.4144        0.5908
      93    1    1       26.5410       25.4468        0.5774
      94    1    1       26.8636       26.2235        0.1736
      95    1    1       27.4931       26.9114        0.3985
      96    1    1       27.1962       27.1337        1.2488
      97    1    1       28.1687       27.1477        1.3783
      98    1    1       28.5220       28.0391        1.4647
      99    1    1       29.1919       28.6659        1.9369
     100    1    1       30.2405       28.7737        1.9217
     101    1    1       31.0390       29.2722        1.8038
     102    1    1       31.8344       29.7143        1.8727
     103    1    1       31.8847       30.0143        0.9366
     104    1    1       31.7461       29.0809        0.7078
     105    1    1       32.0609       28.2581        1.0732
     106    1    1       31.3232       27.6951        0.9517
     107    1    1       30.6908       27.0025        1.1322
     108    1    1       30.1151       26.7556        1.9498
     109    1    1       29.5506       26.2078        1.4803
     110    1    1       29.5494       26.4025        0.5427
     111    1    1       28.9111       25.7326        0.3745
     112    1    1       28.9475       24.8001        0.1041
     113    1    1       28.1097       24.6360        0.3896
     114    1    1       27.5059       23.9978        0.8291
     115    1    1       26.7326       23.4712        0.5010
     116    1    1       26.2703       22.6752        0.6732
     117    1    1       26.2254       22.0672        1.3920
     118    1    1       25.6839       21.2714        1.7002
     119    1    1       25.1110       20.6737        1.0780
     120    1    1       24.7062       20.9982        0.2950
     121    1    1       24.0219       21.1179        1.0686
     122    1    1       23.3606       21.2764        0.3997
     123    1    1       23.2700       20.2783        0.4164
     124    1    1       22.4190       20.0271        0.0194
     125    1    1       21.8193       19.2582        0.0639
     126    1    1       21.3231       18.6208        0.5392
     127    1    1       20.8895       17.7215        0.3415
     128    1    1       20.0521       18.1381        0.5177
     129    1    1       19.0880       17.9796        0.4909
     130    1    1       18.6585       18.8420        0.3136
     131    1    1       19.4108       19.4065        0.2785
     132    1    1       18.8162       20.1936        0.2528
     133    1    1       17.8565       20.2132        0.5995
     134    1    1       17.2332       20.0674        1.3147
     135    1    1       16.8142       20.9262        1.4368
     136    1    1       16.8679       21.7806        1.8368
     137    1    1       16.2925       21.8246        1.0378
     138    1    1       15.8949       21.1590        0.5023
     139    1    1       14.9839       20.8771        0.3061
     140    1    1       14.2943       20.3206        0.6173
     141    1    1       13.3913       20.3284        0.3181
     142    1    1       12.4829       19.9622        0.5880
     143    1    1       11.7958       19.3332        0.3522
     144    1    1       11.3449       18.6601        0.8915
     145    1    1       10.5253       19.1315        1.0569
     146    1    1        9.5637       18.9507        1.1661
     147    1    1        9.4344       19.9467        1.0175
     148    1    1        8.4620       20.0535        1.0297
     149    1    1        7.5077       20.1648        0.6467
     150    1    1        6.6961       19.7031        0.9404
     151    1    1        5.8428       19.4597        1.3880
     152    1    1        5.0473       18.9277        1.6318
     153    1    1        4.3974       18.5185        1.0913
     154    1    1        3.5665       18.3415        0.5814
     155    1    1        2.7639       17.9216        0.9323
     156    1    1        2.0073       17.8907        0.3873
     157    1    1        2.1557       16.9818        0.0964
     158    1    1        2.1506       15.9221        0.1015
     159    1    1        1.4375       15.3551        0.4706
     160    1    1        0.5955       14.9033        0.4817
     161    1    1       -0.4396       14.7631        0.6336
     162    1    1       -1.3108       15.0726        0.8682
     163    1    1       -2.1736       15.0881        0.5028
     164    1    1       -3.0827       15.3386        0.3099
     165    1    1       -4.0079       15.2973        0.6467
     166    1    1       -4.4669       14.4482        0.4575
     167    1    1       -5.0966       14.1936        1.2016
     168    1    1       -5.6304       13.4878        0.8203
     169    1    1       -5.6316       12.7130        0.2270
     170    1    1       -5.0611       11.9751        0.4379
     171    1    1       -4.7205       11.0871        0.4114
     172    1    1       -4.8329       10.2941        0.9137
     173    1    1       -5.3629        9.4989        0.6605
     174    1    1       -5.7597        8.9019        1.3748
     175    1    1       -4.9728        8.6319        1.9146
     176    1    1       -3.9933        8.4218        1.9030
     177    1    1       -4.3771        7.5460        1.8120
     178    1    1       -3.8501        6.9541        1.2139
     179    1    1       -3.1478        6.3597        0.9527
     180    1    1       -2.2158        6.6149        0.8213
     181    1      1             18.0000      18.0000       -0.9000
     182    1      1             18.0000      18.0000       0.0000
     183    1      1             18.0000      18.0000       1.0000
     184    1      1             18.0000      18.0000       2.0000
     185    1      1             18.0000      18.0000       2.9000

Bonds

      1     1     1  2
      2     1     2  3
      3     1     3  4
      4     1     4  5
      5     1     5  6
      6     1     6  7
      7     1     7  8
      8     1     8  9
      9     1     9  10
      10     1     10  11
      11     1     11  12
      12     1     12  13
      13     1     13  14
      14     1     14  15
      15     1     15  16
      16     1     16  17
      17     1     17  18
      18     1     18  19
      19     1     19  20
      20     1     20  21
      21     1     21  22
      22     1     22  23
      23     1     23  24
      24     1     24  25
      25     1     25  26
      26     1     26  27
      27     1     27  28
      28     1     28  29
      29     1     29  30
      30     1     30  31
      31     1     31  32
      32     1     32  33
      33     1     33  34
      34     1     34  35
      35     1     35  36
      36     1     36  37
      37     1     37  38
      38     1     38  39
      39     1     39  40
      40     1     40  41
      41     1     41  42
      42     1     42  43
      43     1     43  44
      44     1     44  45
      45     1     45  46
      46     1     46  47
      47     1     47  48
      48     1     48  49
      49     1     49  50
      50     1     50  51
      51     1     51  52
      52     1     52  53
      53     1     53  54
      54     1     54  55
      55     1     55  56
      56     1     56  57
      57     1     57  58
      58     1     58  59
      59     1     59  60
      60     1     60  61
      61     1     61  62
      62     1     62  63
      63     1     63  64
      64     1     64  65
      65     1     65  66
      66     1     66  67
      67     1     67  68
      68     1     68  69
      69     1     69  70
      70     1     70  71
      71     1     71  72
      72     1     72  73
      73     1     73  74
      74     1     74  75
      75     1     75  76
      76     1     76  77
      77     1     77  78
      78     1     78  79
      79     1     79  80
      80     1     80  81
      81     1     81  82
      82     1     82  83
      83     1     83  84
      84     1     84  85
      85     1     85  86
      86     1     86  87
      87     1     87  88
      88     1     88  89
      89     1     89  90
      90     1     90  91
      91     1     91  92
      92     1     92  93
      93     1     93  94
      94     1     94  95
      95     1     95  96
      96     1     96  97
      97     1     97  98
      98     1     98  99
      99     1     99  100
      100     1     100  101
      101     1     101  102
      102     1     102  103
      103     1     103  104
      104     1     104  105
      105     1     105  106
      106     1     106  107
      107     1     107  108
      108     1     108  109
      109     1     109  110
      110     1     110  111
      111     1     111  112
      112     1     112  113
      113     1     113  114
      114     1     114  115
      115     1     115  116
      116     1     116  117
      117     1     117  118
      118     1     118  119
      119     1     119  120
      120     1     120  121
      121     1     121  122
      122     1     122  123
      123     1     123  124
      124     1     124  125
      125     1     125  126
      126     1     126  127
      127     1     127  128
      128     1     128  129
      129     1     129  130
      130     1     130  131
      131     1     131  132
      132     1     132  133
      133     1     133  134
      134     1     134  135
      135     1     135  136
      136     1     136  137
      137     1     137  138
      138     1     138  139
      139     1     139  140
      140     1     140  141
      141     1     141  142
      142     1     142  143
      143     1     143  144
      144     1     144  145
      145     1     145  146
      146     1     146  147
      147     1     147  148
      148     1     148  149
      149     1     149  150
      150     1     150  151
      151     1     151  152
      152     1     152  153
      153     1     153  154
      154     1     154  155
      155     1     155  156
      156     1     156  157
      157     1     157  158
      158     1     158  159
      159     1     159  160
      160     1     160  161
      161     1     161  162
      162     1     162  163
      163     1     163  164
      164     1     164  165
      165     1     165  166
      166     1     166  167
      167     1     167  168
      168     1     168  169
      169     1     169  170
      170     1     170  171
      171     1     171  172
      172     1     172  173
      173     1     173  174
      174     1     174  175
      175     1     175  176
      176     1     176  177
      177     1     177  178
      178     1     178  179
      179     1     179  180
      180     1     180  1

Angles

      1     1     1  2 3
      2     1     2  3 4
      3     1     3  4 5
      4     1     4  5 6
      5     1     5  6 7
      6     1     6  7 8
      7     1     7  8 9
      8     1     8  9 10
      9     1     9  10 11
      10     1     10  11 12
      11     1     11  12 13
      12     1     12  13 14
      13     1     13  14 15
      14     1     14  15 16
      15     1     15  16 17
      16     1     16  17 18
      17     1     17  18 19
      18     1     18  19 20
      19     1     19  20 21
      20     1     20  21 22
      21     1     21  22 23
      22     1     22  23 24
      23     1     23  24 25
      24     1     24  25 26
      25     1     25  26 27
      26     1     26  27 28
      27     1     27  28 29
      28     1     28  29 30
      29     1     29  30 31
      30     1     30  31 32
      31     1     31  32 33
      32     1     32  33 34
      33     1     33  34 35
      34     1     34  35 36
      35     1     35  36 37
      36     1     36  37 38
      37     1     37  38 39
      38     1     38  39 40
      39     1     39  40 41
      40     1     40  41 42
      41     1     41  42 43
      42     1     42  43 44
      43     1     43  44 45
      44     1     44  45 46
      45     1     45  46 47
      46     1     46  47 48
      47     1     47  48 49
      48     1     48  49 50
      49     1     49  50 51
      50     1     50  51 52
      51     1     51  52 53
      52     1     52  53 54
      53     1     53  54 55
      54     1     54  55 56
      55     1     55  56 57
      56     1     56  57 58
      57     1     57  58 59
      58     1     58  59 60
      59     1     59  60 61
      60     1     60  61 62
      61     1     61  62 63
      62     1     62  63 64
      63     1     63  64 65
      64     1     64  65 66
      65     1     65  66 67
      66     1     66  67 68
      67     1     67  68 69
      68     1     68  69 70
      69     1     69  70 71
      70     1     70  71 72
      71     1     71  72 73
      72     1     72  73 74
      73     1     73  74 75
      74     1     74  75 76
      75     1     75  76 77
      76     1     76  77 78
      77     1     77  78 79
      78     1     78  79 80
      79     1     79  80 81
      80     1     80  81 82
      81     1     81  82 83
      82     1     82  83 84
      83     1     83  84 85
      84     1     84  85 86
      85     1     85  86 87
      86     1     86  87 88
      87     1     87  88 89
      88     1     88  89 90
      89     1     89  90 91
      90     1     90  91 92
      91     1     91  92 93
      92     1     92  93 94
      93     1     93  94 95
      94     1     94  95 96
      95     1     95  96 97
      96     1     96  97 98
      97     1     97  98 99
      98     1     98  99 100
      99     1     99  100 101
      100     1     100  101 102
      101     1     101  102 103
      102     1     102  103 104
      103     1     103  104 105
      104     1     104  105 106
      105     1     105  106 107
      106     1     106  107 108
      107     1     107  108 109
      108     1     108  109 110
      109     1     109  110 111
      110     1     110  111 112
      111     1     111  112 113
      112     1     112  113 114
      113     1     113  114 115
      114     1     114  115 116
      115     1     115  116 117
      116     1     116  117 118
      117     1     117  118 119
      118     1     118  119 120
      119     1     119  120 121
      120     1     120  121 122
      121     1     121  122 123
      122     1     122  123 124
      123     1     123  124 125
      124     1     124  125 126
      125     1     125  126 127
      126     1     126  127 128
      127     1     127  128 129
      128     1     128  129 130
      129     1     129  130 131
      130     1     130  131 132
      131     1     131  132 133
      132     1     132  133 134
      133     1     133  134 135
      134     1     134  135 136
      135     1     135  136 137
      136     1     136  137 138
      137     1     137  138 139
      138     1     138  139 140
      139     1     139  140 141
      140     1     140  141 142
      141     1     141  142 143
      142     1     142  143 144
      143     1     143  144 145
      144     1     144  145 146
      145     1     145  146 147
      146     1     146  147 148
      147     1     147  148 149
      148     1     148  149 150
      149     1     149  150 151
      150     1     150  151 152
      151     1     151  152 153
      152     1     152  153 154
      153     1     153  154 155
      154     1     154  155 156
      155     1     155  156 157
      156     1     156  157 158
      157     1     157  158 159
      158     1     158  159 160
      159     1     159  160 161
      160     1     160  161 162
      161     1     161  162 163
      162     1     162  163 164
      163     1     163  164 165
      164     1     164  165 166
      165     1     165  166 167
      166     1     166  167 168
      167     1     167  168 169
      168     1     168  169 170
      169     1     169  170 171
      170     1     170  171 172
      171     1     171  172 173
      172     1     172  173 174
      173     1     173  174 175
      174     1     174  175 176
      175     1     175  176 177
      176     1     176  177 178
      177     1     177  178 179
      178     1     178  179 180
      179     1     179  180 1
      180     1     180  1 2

